file 1575146 1302703655                                         
version 2
run General-0-20110413-17:07:27-1888
attr configname General
attr datetime 20110413-17:07:27
attr experiment General
attr inifile /home/ran/omnetworkspace/SwicthNet/src/omnetpp.ini
attr iterationvars ""
attr iterationvars2 $repetition=0
attr measurement ""
attr network LanNet
attr processid 1888
attr repetition 0
attr replication #0
attr resultdir results
attr runnumber 0
attr seedset 0

vector 5  LanNet.host[2].app  "Bettwen arrivals Time"  ETV
vector 4  LanNet.host[2].app  "Arrival Time"  ETV
vector 1  LanNet.host[0].app  "Bettwen arrivals Time"  ETV
vector 0  LanNet.host[0].app  "Arrival Time"  ETV
vector 7  LanNet.host[3].app  "Bettwen arrivals Time"  ETV
vector 6  LanNet.host[3].app  "Arrival Time"  ETV
vector 3  LanNet.host[1].app  "Bettwen arrivals Time"  ETV
vector 2  LanNet.host[1].app  "Arrival Time"  ETV
0	837 199288 32 160756 0.090010888846 499.707166117989 4997 6.096e-05 0.876013257651 499.70716611799 99.62696488975
1	200125 197881 32 160756 0.090010888846 499.707166117989 4997 0.00010269 0.22341026138 115.95916934592 5.9668897942098
2	398006 193085 192 160788 0.426573188383 499.831829125061 4843 7.536e-05 0.73960035953 499.83182912506 103.13625126542
3	591091 191692 192 160788 0.426573188383 499.831829125061 4843 0.000103994 0.184954467885 112.10232937579 5.4927647372545
4	782783 199079 16 160796 0.079783376454 499.876049766693 4996 6.224e-05 1.072439878532 499.87604976669 101.62720053442
5	981862 197697 16 160796 0.079783376454 499.876049766693 4996 9.4866e-05 0.209297070202 110.19359387457 5.3846703547055
6	1179559 198461 64 160780 0.131592260711 499.800927542808 4979 6.736e-05 0.912986944667 499.80092754281 98.885158663043
7	1378020 197126 64 160780 0.131592260711 499.800927542808 4979 9.3562e-05 0.254038910913 115.51755609216 5.9653528988482
