file 904596 1302253694                                          
version 2
run General-0-20110408-12:06:48-5633
attr configname General
attr datetime 20110408-12:06:48
attr experiment General
attr inifile /home/surkesd/omnet_worksp/SwicthNet/src/omnetpp.ini
attr iterationvars ""
attr iterationvars2 $repetition=0
attr measurement ""
attr network LanNet
attr processid 5633
attr repetition 0
attr replication #0
attr resultdir results
attr runnumber 0
attr seedset 0

vector 5  LanNet.host[2].app  "Bettwen arrivals Time"  ETV
vector 4  LanNet.host[2].app  "Arrival Time"  ETV
vector 1  LanNet.host[0].app  "Bettwen arrivals Time"  ETV
vector 0  LanNet.host[0].app  "Arrival Time"  ETV
vector 7  LanNet.host[3].app  "Bettwen arrivals Time"  ETV
vector 6  LanNet.host[3].app  "Arrival Time"  ETV
vector 3  LanNet.host[1].app  "Bettwen arrivals Time"  ETV
vector 2  LanNet.host[1].app  "Arrival Time"  ETV
0	839 113350 32 93995 0.090010888846 293.064167873979 2885 6.096e-05 0.876013257651 293.06416787398 60.156796807877
1	114189 111930 32 93995 0.090010888846 293.064167873979 2885 0.00010269 0.22341026138 61.925402243429 3.2557537040995
2	226119 111093 192 94003 0.426573188383 293.108077706566 2828 7.536e-05 0.72120000975 293.10807770657 60.059917025559
3	337212 109714 192 94003 0.426573188383 293.108077706566 2828 0.000103994 0.184954467885 61.059080194954 3.014062223248
4	446926 116816 16 93963 0.079783376454 293.011036435059 2974 6.224e-05 1.072439878532 293.01103643506 59.633903346121
5	563742 115421 16 93963 0.079783376454 293.011036435059 2974 9.4866e-05 0.172857817536 60.212924298055 2.9324759397382
6	679163 113391 64 94011 0.131592260711 293.128020737718 2888 6.736e-05 0.912986944667 293.12802073772 59.41396137006
7	792554 112042 64 94011 0.131592260711 293.128020737718 2888 9.3562e-05 0.213212046501 62.442007734338 3.251776867851
