version 2
run General-0-20110408-10:36:49-2560
attr configname General
attr datetime 20110408-10:36:49
attr experiment General
attr inifile /home/surkesd/omnet_worksp/SwicthNet/src/omnetpp.ini
attr iterationvars ""
attr iterationvars2 $repetition=0
attr measurement ""
attr network LanNet
attr processid 2560
attr repetition 0
attr replication #0
attr resultdir results
attr runnumber 0
attr seedset 0

vector 2  LanNet.host[2].app  "Arrival Time"  ETV
vector 0  LanNet.host[0].app  "Arrival Time"  ETV
vector 3  LanNet.host[3].app  "Arrival Time"  ETV
vector 1  LanNet.host[1].app  "Arrival Time"  ETV
0	32	0.269722966543	0.269722966543
0	48	0.376970589412	0.107247622869
0	72	0.415230771661	0.038260182249
0	96	0.55807588562	0.142845113959
0	104	0.589341410616	0.031265524996
0	176	1.18519193859	0.595850527974
0	208	1.326368270311	0.141176331721
0	216	1.367885369544	0.041517099233
0	272	1.816509263413	0.448623893869
0	280	1.918303276996	0.101794013583
0	312	2.185760216261	0.267456939265
0	320	2.189783852694	0.004023636433
0	440	3.142577327386	0.952793474692
0	448	3.148670413022	0.006093085636
0	464	3.244521041427	0.095850628405
0	472	3.290287014817	0.04576597339
0	520	3.889666430224	0.599379415407
0	536	4.227050954741	0.337384524517
0	552	4.257697405486	0.030646450745
0	600	4.645335978994	0.387638573508
0	617	4.833577233844	0.18824125485
0	633	4.962964466606	0.129387232762
0	729	5.634146006646	0.67118154004
0	761	5.671254426034	0.037108419388
0	793	6.303672806039	0.632418380005
0	858	6.859211163983	0.555538357944
0	886	7.12797528617	0.268764122187
0	894	7.139874884596	0.011899598426
0	910	7.219660668714	0.079785784118
0	926	7.297304442169	0.077643773455
0	950	7.837877700978	0.540573258809
0	958	8.032415534613	0.194537833635
0	966	8.213238979047	0.180823444434
0	982	8.405422723997	0.19218374495
0	1030	8.785012231402	0.379589507405
0	1062	8.921449333249	0.136437101847
0	1070	8.922444441806	0.000995108557
0	1174	10.272934127445	1.350489685639
0	1225	10.574333069807	0.301398942362
0	1242	10.614488303267	0.04015523346
0	1266	10.647477458139	0.032989154872
0	1306	10.756469031811	0.108991573672
0	1315	10.89938131059	0.142912278779
0	1379	11.246307723403	0.346926412813
0	1460	11.592250669721	0.345942946318
0	1484	12.127115869736	0.534865200015
0	1604	13.582693986135	1.455578116399
0	1620	13.602098265971	0.019404279836
0	1636	13.688651851022	0.086553585051
0	1652	13.744014866219	0.055363015197
0	1668	13.924148517434	0.180133651215
0	1805	15.247446460131	1.323297942697
0	1813	15.267268744079	0.019822283948
0	1869	15.499287173678	0.232018429599
0	1885	15.642233443969	0.142946270291
0	1893	15.698790473244	0.056557029275
0	1901	15.773385330706	0.074594857462
0	1933	16.137393069237	0.364007738531
0	1941	16.460708843599	0.323315774362
0	1989	16.919078765603	0.458369922004
0	2006	17.169650855512	0.250572089909
0	2150	18.365721933509	1.196071077997
0	2158	18.43633456546	0.070612631951
0	2182	18.695317356087	0.258982790627
0	2198	18.942311400019	0.246994043932
0	2214	18.979436678509	0.03712527849
0	2230	19.184524789508	0.205088110999
0	2270	19.632357190326	0.447832400818
0	2278	19.671039692138	0.038682501812
0	2392	20.585055146236	0.914015454098
0	2411	20.706362942943	0.121307796707
0	2427	20.899260418883	0.19289747594
0	2508	21.679161088486	0.779900669603
0	2525	21.772195801465	0.093034712979
0	2582	22.704051943638	0.931856142173
0	2590	22.760231777287	0.056179833649
0	2614	23.032274409478	0.272042632191
0	2694	23.874771966682	0.842497557204
0	2710	23.941127805224	0.066355838542
0	2734	24.180583351102	0.239455545878
0	2854	25.293319691409	1.112736340307
0	2918	25.793981468207	0.500661776798
0	2950	25.927475826987	0.13349435878
0	2966	26.034253421065	0.106777594078
0	2982	26.187029020664	0.152775599599
0	3054	26.93754434718	0.750515326516
0	3150	28.013274085371	1.075729738191
0	3174	28.09641744405	0.083143358679
0	3190	28.211824518571	0.115407074521
0	3230	28.530263129459	0.318438610888
0	3254	28.807752978554	0.277489849095
0	3262	28.818152926468	0.010399947914
0	3310	29.404453381977	0.586300455509
0	3326	29.587449843359	0.182996461382
0	3366	29.87278829448	0.285338451121
0	3374	30.120644278939	0.247855984459
0	3398	30.318830118964	0.198185840025
0	3472	30.972655382337	0.653825263373
0	3546	31.88481034949	0.912154967153
0	3554	31.912102505106	0.027292155616
0	3570	32.181228213439	0.269125708333
0	3587	32.438258199884	0.257029986445
0	3630	32.788704992951	0.350446793067
0	3646	33.152543070869	0.363838077918
0	3654	33.168321761978	0.015778691109
0	3678	33.344870226265	0.176548464287
0	3726	33.750415155336	0.405544929071
0	3743	33.933561124662	0.183145969326
0	3775	34.284133553546	0.350572428884
0	3800	34.646294021816	0.36216046827
0	3810	34.851585148284	0.205291126468
0	3873	35.374363434402	0.522778286118
0	3889	35.47718927216	0.102825837758
0	3897	35.521130845925	0.043941573765
0	3945	35.73294723959	0.211816393665
0	3969	36.011400431611	0.278453192021
0	4049	36.641134233351	0.62973380174
0	4057	36.684293939788	0.043159706437
0	4121	37.031045299944	0.346751360156
0	4129	37.044232919323	0.013187619379
0	4161	37.164191638561	0.119958719238
0	4169	37.211907075257	0.047715436696
0	4185	37.323491401784	0.111584326527
0	4201	37.40159088663	0.078099484846
0	4233	37.87628935387	0.47469846724
0	4322	39.077278873552	1.200989519682
0	4330	39.082543545495	0.005264671943
0	4455	40.053302483212	0.970758937717
0	4471	40.150001841258	0.096699358046
0	4487	40.309513364791	0.159511523533
0	4503	40.49111637622	0.181603011429
0	4527	40.557841759221	0.066725383001
0	4593	41.143039878705	0.585198119484
0	4652	41.643497858537	0.500457979832
0	4692	41.98138580201	0.337887943473
0	4700	42.213600963688	0.232215161678
0	4716	42.349490911283	0.135889947595
0	4732	42.446530245908	0.097039334625
0	4822	43.36788534663	0.921355100722
0	4886	44.324095679615	0.956210332985
0	4902	44.376885278746	0.052789599131
0	4979	45.50281155387	1.125926275124
0	4996	45.691500956456	0.188689402586
0	5004	45.857853815403	0.166352858947
0	5053	46.603205515391	0.745351699988
0	5061	46.657420584116	0.054215068725
0	5085	46.99412970605	0.336709121934
0	5101	47.114511406948	0.120381700898
0	5109	47.207936762607	0.093425355659
0	5154	47.95693323115	0.748996468543
0	5186	48.195815397458	0.238882166308
0	5226	48.392495940925	0.196680543467
0	5234	48.586823683498	0.194327742573
0	5242	48.752784548302	0.165960864804
0	5291	49.079306415527	0.326521867225
0	5299	49.243524646285	0.164218230758
0	5339	49.596799851115	0.35327520483
0	5403	50.231758868672	0.634959017557
0	5419	50.410473901759	0.178715033087
0	5435	50.436699867734	0.026225965975
0	5451	50.502586750372	0.065886882638
0	5523	51.108105014904	0.605518264532
0	5555	51.209972303278	0.101867288374
0	5563	51.210819020536	0.000846717258
0	5571	51.303881459965	0.093062439429
0	5645	52.156867638075	0.85298617811
0	5653	52.206500736601	0.049633098526
0	5670	52.42204220809	0.215541471489
0	5721	53.169247293922	0.747205085832
0	5740	53.422096848032	0.25284955411
0	5774	53.859352001614	0.437255153582
0	5792	53.927249948907	0.067897947293
0	5848	54.389124731846	0.461874782939
0	5872	54.884291940428	0.495167208582
0	5888	55.045705326059	0.161413385631
0	5896	55.367459299097	0.321753973038
0	5960	55.797801748987	0.43034244989
0	5976	55.967420758063	0.169619009076
0	5992	56.362815111932	0.395394353869
0	6000	56.410862485283	0.048047373351
0	6141	58.097216921894	1.686354436611
0	6149	58.121038577045	0.023821655151
0	6197	58.398311392996	0.277272815951
0	6221	58.514212854484	0.115901461488
0	6245	58.697646395578	0.183433541094
0	6317	59.392537363954	0.694890968376
0	6349	59.510509641993	0.117972278039
0	6381	59.66926583078	0.158756188787
0	6397	60.074471215014	0.405205384234
0	6413	60.09379266823	0.019321453216
0	6421	60.189717051124	0.095924382894
0	6429	60.194612126212	0.004895075088
0	6462	60.530010161651	0.335398035439
0	6486	60.977413296286	0.447403134635
0	6502	61.002186744994	0.024773448708
0	6606	62.138556850514	1.13637010552
0	6622	62.201275938996	0.062719088482
0	6670	62.830883858928	0.629607919932
0	6686	63.003635118646	0.172751259718
0	6695	63.16494004224	0.161304923594
0	6770	63.663111764294	0.498171722054
0	6794	63.834271446385	0.171159682091
0	6851	63.936592748197	0.102321301812
0	6892	64.417549844671	0.480957096474
0	6900	64.428682869817	0.011133025146
0	6956	64.818910394434	0.390227524617
0	6964	64.914627693408	0.095717298974
0	6988	65.009021685208	0.0943939918
0	7036	65.346126590117	0.337104904909
0	7167	67.440119244522	2.093992654405
0	7227	67.714287643541	0.274168399019
0	7267	68.114269873646	0.399982230105
0	7275	68.230614199664	0.116344326018
0	7283	68.266961739382	0.036347539718
0	7299	68.326933774112	0.05997203473
0	7358	68.834761337899	0.507827563787
0	7422	69.149003749794	0.314242411895
0	7430	69.150160086091	0.001156336297
0	7454	69.209347466301	0.05918738021
0	7462	69.42334943917	0.214001972869
0	7470	69.570053732985	0.146704293815
0	7478	69.638816331698	0.068762598713
0	7494	69.733412863661	0.094596531963
0	7502	69.926754789298	0.193341925637
0	7534	70.055193925807	0.128439136509
0	7575	70.637232885584	0.582038959777
0	7615	70.872716472016	0.235483586432
0	7671	71.490944600316	0.6182281283
0	7727	72.274657442397	0.783712842081
0	7759	72.459963011723	0.185305569326
0	7799	73.09619179625	0.636228784527
0	7848	73.702112612232	0.605920815982
0	7953	74.211190634802	0.50907802257
0	7970	74.483792729592	0.27260209479
0	7986	74.530912302261	0.047119572669
0	7994	74.571317302605	0.040405000344
0	8010	74.678486429473	0.107169126868
0	8018	74.722601369873	0.0441149404
0	8066	75.095698266613	0.37309689674
0	8098	75.792687132438	0.696988865825
0	8106	75.839334810772	0.046647678334
0	8124	76.106692543905	0.267357733133
0	8142	76.130983078949	0.024290535044
0	8232	76.778701827451	0.647718748502
0	8265	77.268688838461	0.48998701101
0	8329	77.713445061233	0.444756222772
0	8443	78.565188096313	0.85174303508
0	8459	78.721535803449	0.156347707136
0	8499	78.951975167061	0.230439363612
0	8684	80.892860608106	1.940885441045
0	8724	81.108442058674	0.215581450568
0	8756	81.875120991774	0.7666789331
0	8781	82.052529509596	0.177408517822
0	8789	82.195341160344	0.142811650748
0	8854	83.265492057873	1.070150897529
0	8862	83.419596101036	0.154104043163
0	8905	83.740742637654	0.321146536618
0	8913	83.77904764346	0.038305005806
0	8929	83.923662815458	0.144615171998
0	8945	83.998200880074	0.074538064616
0	8953	84.124983564698	0.126782684624
0	8969	84.169172120925	0.044188556227
0	8994	84.25094570796	0.081773587035
0	9018	84.594552282171	0.343606574211
0	9138	85.511415195285	0.916862913114
0	9186	85.839935163919	0.328519968634
0	9194	85.872408758054	0.032473594135
0	9219	86.387681070563	0.515272312509
0	9328	87.505130208718	1.117449138155
0	9344	87.610568542691	0.105438333973
0	9360	87.705431805093	0.094863262402
0	9384	88.012376032238	0.306944227145
0	9408	88.06794684101	0.055570808772
0	9416	88.161006482587	0.093059641577
0	9472	88.553506456092	0.392499973505
0	9481	88.563157568997	0.009651112905
0	9489	88.650562244893	0.087404675896
0	9506	88.843354525659	0.192792280766
0	9554	89.770614904181	0.927260378522
0	9562	89.798203964256	0.027589060075
0	9586	89.942332601099	0.144128636843
0	9715	90.843571463576	0.901238862477
0	9723	90.975294087869	0.131722624293
0	9764	91.438787078488	0.463492990619
0	9804	91.708727764733	0.269940686245
0	9820	91.895687525295	0.186959760562
0	9868	92.2265425993	0.330855074005
0	9892	92.615773189306	0.389230590006
0	9916	92.961592553865	0.345819364559
0	9924	93.02035456183	0.058762007965
0	9948	93.181041778818	0.160687216988
0	10004	93.682740424468	0.50169864565
0	10020	93.983673449981	0.300933025513
0	10120	95.048911863035	1.065238413054
0	10129	95.324681076039	0.275769213004
0	10148	95.442132773294	0.117451697255
0	10156	95.447170009287	0.005037235993
0	10199	95.810966370597	0.36379636131
0	10239	95.986264503936	0.175298133339
0	10247	96.141862980596	0.15559847666
0	10255	96.19339924676	0.051536266164
0	10295	96.632015919195	0.438616672435
0	10320	96.755612927566	0.123597008371
0	10344	96.900847144454	0.145234216888
0	10368	97.081703167051	0.180856022597
0	10384	97.107727550631	0.02602438358
0	10409	97.397967342999	0.290239792368
0	10449	97.862515758207	0.464548415208
0	10457	98.080139116159	0.217623357952
0	10473	98.183497264441	0.103358148282
0	10522	98.652961474417	0.469464209976
0	10538	98.675588018197	0.02262654378
0	10554	98.779413143813	0.103825125616
0	10594	99.047244815325	0.267831671512
0	10610	99.121891189964	0.074646374639
0	10642	99.303298745681	0.181407555717
0	10674	99.585051752265	0.281753006584
0	10817	101.469050830329	1.883999078064
0	10835	101.480383757151	0.011332926822
0	10887	102.056865634206	0.576481877055
0	10895	102.2574491396	0.200583505394
0	10921	102.394509690469	0.137060550869
0	10929	102.573041161557	0.178531471088
0	10937	102.705266224578	0.132225063021
0	11039	104.358101708843	1.652835484265
0	11055	104.570482990461	0.212381281618
0	11072	104.62044399364	0.049961003179
0	11114	105.236422511421	0.615978517781
0	11170	105.782790366961	0.54636785554
0	11195	105.967203553102	0.184413186141
0	11211	106.212082408152	0.24487885505
0	11228	106.279615612135	0.067533203983
0	11254	106.520865569086	0.241249956951
0	11287	106.809655601782	0.288790032696
0	11343	107.342443497437	0.532787895655
0	11359	107.477383833981	0.134940336544
0	11431	108.071121831626	0.593737997645
0	11455	108.276178539841	0.205056708215
0	11488	108.61708717911	0.340908639269
0	11547	109.335781307563	0.718694128453
0	11587	109.525791748009	0.190010440446
0	11603	109.572365833809	0.0465740858
0	11643	109.950694987422	0.378329153613
0	11651	110.078648162775	0.127953175353
0	11659	110.08307442291	0.004426260135
0	11667	110.255515846235	0.172441423325
0	11699	110.374848988453	0.119333142218
0	11724	110.691872977313	0.31702398886
0	11756	110.756648796239	0.064775818926
0	11772	110.863375269594	0.106726473355
0	11796	111.049263077442	0.185887807848
0	11836	111.431651424096	0.382388346654
0	11852	111.541244754382	0.109593330286
0	11917	112.233201379477	0.691956625095
0	11981	113.20252556603	0.969324186553
0	12014	113.505991831926	0.303466265896
0	12046	113.683709743826	0.1777179119
0	12062	113.826296467279	0.142586723453
0	12158	114.596871291432	0.770574824153
0	12182	114.819295379087	0.222424087655
0	12190	114.86917415351	0.049878774423
0	12207	115.192026800688	0.322852647178
0	12215	115.222761875699	0.030735075011
0	12223	115.271417134999	0.0486552593
0	12255	115.567998473248	0.296581338249
0	12263	115.607801295128	0.03980282188
0	12287	115.859092879975	0.251291584847
0	12303	116.078537683997	0.219444804022
0	12375	116.637562611227	0.55902492723
0	12399	116.950490340316	0.312927729089
0	12415	116.993002630034	0.042512289718
0	12439	117.229162100059	0.236159470025
0	12455	117.302739441802	0.073577341743
0	12479	117.466318757287	0.163579315485
0	12511	117.721057506188	0.254738748901
0	12568	118.092613474877	0.371555968689
0	12640	118.768999214729	0.676385739852
0	12706	119.546457916539	0.77745870181
0	12722	119.621530944011	0.075073027472
0	12730	119.808854100172	0.187323156161
0	12764	120.460190621573	0.651336521401
0	12832	120.926363369877	0.466172748304
0	12856	121.143346768004	0.216983398127
0	12880	121.276812493868	0.133465725864
0	12888	121.331622309441	0.054809815573
0	12904	121.648241286868	0.316618977427
0	12984	122.199300815499	0.551059528631
0	13024	122.514153402755	0.314852587256
0	13032	122.615031251119	0.100877848364
0	13064	122.900840958795	0.285809707676
0	13080	123.036391943759	0.135550984964
0	13088	123.134244415247	0.097852471488
0	13096	123.136008124772	0.001763709525
0	13147	123.561378413017	0.425370288245
0	13163	123.879964803297	0.31858639028
0	13219	124.367001735298	0.487036932001
0	13267	124.736880738484	0.369879003186
0	13283	124.93500000202	0.198119263536
0	13299	125.038558673988	0.103558671968
0	13395	125.855229213875	0.816670539887
0	13443	126.130379046091	0.275149832216
0	13467	126.675404245166	0.545025199075
0	13491	126.912947289996	0.23754304483
0	13507	127.167959820839	0.255012530843
0	13523	127.89233054015	0.724370719311
0	13531	127.898299061968	0.005968521818
0	13636	128.80568156904	0.907382507072
0	13692	129.003599503204	0.197917934164
0	13700	129.099975115218	0.096375612014
0	13756	129.569975707848	0.47000059263
0	13804	129.899997252327	0.330021544479
0	13820	129.955473455489	0.055476203162
0	13860	130.26207191083	0.306598455341
0	13910	130.792928042883	0.530856132053
0	13934	130.948632113014	0.155704070131
0	13950	130.961594293127	0.012962180113
0	13958	131.08075946986	0.119165176733
0	14055	131.962117926909	0.881358457049
0	14231	133.197889965787	1.235772038878
0	14272	133.883463588603	0.685573622816
0	14312	134.27770442225	0.394240833647
0	14328	134.372130712278	0.094426290028
0	14344	134.493591478522	0.121460766244
0	14360	134.539817850398	0.046226371876
0	14368	134.658163631202	0.118345780804
0	14384	134.735986746314	0.077823115112
0	14507	136.050496163335	1.314509417021
0	14539	136.234517191727	0.184021028392
0	14547	136.241793154833	0.007275963106
0	14571	136.513779509647	0.271986354814
0	14579	136.611156419843	0.097376910196
0	14587	136.630246053347	0.019089633504
0	14595	136.791455412636	0.161209359289
0	14603	137.294104974753	0.502649562117
0	14619	137.410268022508	0.116163047755
0	14660	138.31563588504	0.905367862532
0	14725	138.660762428421	0.345126543381
0	14757	138.811105309854	0.150342881433
0	14773	138.82332993975	0.012224629896
0	14789	139.102883914096	0.279553974346
0	14813	139.371832611747	0.268948697651
0	14837	139.666123475712	0.294290863965
0	14895	140.298847767287	0.632724291575
0	14929	140.439213058138	0.140365290851
0	14947	140.499819832775	0.060606774637
0	15040	141.211288271861	0.711468439086
0	15056	141.262834737546	0.051546465685
0	15105	141.660932149693	0.398097412147
0	15113	141.693952639231	0.033020489538
0	15146	142.073193258417	0.379240619186
0	15170	142.358829605466	0.285636347049
0	15290	142.962257086898	0.603427481432
0	15314	143.051956870992	0.089699784094
0	15338	143.216759002598	0.164802131606
1	192	1.279326409155	1.279326409155
1	200	1.285008503917	0.005682094762
1	232	1.467431324233	0.182422820316
1	264	1.68701519426	0.219583870027
1	288	1.988766715809	0.301751521549
1	296	2.133794595418	0.145027879609
1	480	3.374444598487	1.240650003069
1	512	3.707944529193	0.333499930706
1	528	4.144970536764	0.437026007571
1	560	4.408374996964	0.2634044602
1	576	4.493426981872	0.085051984908
1	592	4.638503343848	0.145076361976
1	681	5.328134211209	0.689630867361
1	705	5.574121240506	0.245987029297
1	721	5.625126786157	0.051005545651
1	769	5.715802447315	0.090675661158
1	801	6.431586060787	0.715783613472
1	817	6.493420451331	0.061834390544
1	841	6.570748648512	0.077328197181
1	990	8.438215537663	1.867466889151
1	998	8.525025446021	0.086809908358
1	1014	8.60430464127	0.079279195249
1	1054	8.890720033575	0.286415392305
1	1078	9.074565645994	0.183845612419
1	1086	9.134706780519	0.060141134525
1	1110	9.351256712611	0.216549932092
1	1138	10.169213602474	0.817956889863
1	1184	10.410887170777	0.241673568303
1	1200	10.495422169688	0.084534998911
1	1331	10.988191644562	0.492769474874
1	1347	11.062292948524	0.074101303962
1	1363	11.182295807776	0.120002859252
1	1396	11.315767266989	0.133471459213
1	1452	11.581439388797	0.265672121808
1	1468	11.806308986561	0.224869597764
1	1492	12.149439776296	0.343130789735
1	1548	12.852423491323	0.702983715027
1	1556	12.855352174242	0.002928682919
1	1596	13.458674338231	0.603322163989
1	1612	13.598846816297	0.140172478066
1	1644	13.693570624217	0.09472380792
1	1660	13.756087529958	0.062516905741
1	1676	13.93772222845	0.181634698492
1	1684	13.94932532742	0.01160309897
1	1716	14.080368031649	0.131042704229
1	1724	14.159346074431	0.078978042782
1	1732	14.22099683383	0.061650759399
1	1756	14.401855263444	0.180858429614
1	1772	14.727681048791	0.325825785347
1	1837	15.365595301087	0.637914252296
1	1861	15.496989522875	0.131394221788
1	1877	15.633371220952	0.136381698077
1	1909	15.807694565299	0.174323344347
1	1925	16.047786124906	0.240091559607
1	1949	16.46462040899	0.416834284084
1	1981	16.730741632518	0.266121223528
1	2134	18.311222063113	1.580480430595
1	2142	18.329670295076	0.018448231963
1	2254	19.446455452043	1.116785156967
1	2294	19.693439463764	0.246984011721
1	2310	19.841296574274	0.14785711051
1	2367	20.493542322414	0.65224574814
1	2376	20.581646002799	0.088103680385
1	2435	20.911543175356	0.329897172557
1	2460	21.178587264737	0.267044089381
1	2492	21.522398285626	0.343811020889
1	2500	21.665101363386	0.14270307776
1	2565	22.49754991786	0.832448554474
1	2622	23.230538199413	0.732988281553
1	2630	23.258875620363	0.02833742095
1	2654	23.551991530809	0.293115910446
1	2686	23.814314348804	0.262322817995
1	2718	24.057916138502	0.243601789698
1	2774	24.392206631441	0.334290492939
1	2798	24.952358047454	0.560151416013
1	2822	25.121454698634	0.16909665118
1	2838	25.217754648001	0.096299949367
1	2846	25.252018282169	0.034263634168
1	2862	25.414380363543	0.162362081374
1	2886	25.499771974736	0.085391611193
1	2910	25.581420082974	0.081648108238
1	3006	26.328169030119	0.746748947145
1	3014	26.348126765787	0.019957735668
1	3046	26.599729159871	0.251602394084
1	3088	27.600726152209	1.000996992338
1	3106	27.645686226688	0.044960074479
1	3114	27.678092874749	0.032406648061
1	3158	28.035438521492	0.357345646743
1	3182	28.198707702765	0.163269181273
1	3278	28.918894912636	0.720187209871
1	3302	29.334389994439	0.415495081803
1	3334	29.615974196048	0.281584201609
1	3342	29.756459378021	0.140485181973
1	3350	29.788098582055	0.031639204034
1	3390	30.244584626114	0.456486044059
1	3480	31.040910526282	0.796325900168
1	3497	31.182420538417	0.141510012135
1	3513	31.362742776944	0.180322238527
1	3529	31.660402696228	0.297659919284
1	3622	32.769765708852	1.109363012624
1	3638	33.028796344131	0.259030635279
1	3694	33.454280169831	0.4254838257
1	3702	33.474624168389	0.020343998558
1	3759	34.143804817309	0.66918064892
1	3767	34.27258969083	0.128784873521
1	3783	34.511087780103	0.238498089273
1	3820	35.001359433446	0.490271653343
1	3836	35.247815521286	0.24645608784
1	3844	35.269267766702	0.021452245416
1	3881	35.393467611986	0.124199845284
1	3913	35.578825188744	0.185357576758
1	3929	35.654738240722	0.075913051978
1	3937	35.66171261305	0.006974372328
1	3953	35.745431523229	0.083718910179
1	4017	36.318262219451	0.572830696222
1	4073	36.812829780736	0.494567561285
1	4081	36.871929636885	0.059099856149
1	4089	36.894607527157	0.022677890272
1	4097	36.94219000438	0.047582477223
1	4105	36.981357553607	0.039167549227
1	4137	37.097408647468	0.116051093861
1	4145	37.151292486208	0.05388383874
1	4209	37.503273018239	0.351980532031
1	4225	37.630188890958	0.126915872719
1	4273	38.20889956376	0.578710672802
1	4281	38.352833621167	0.143934057407
1	4314	39.045668942886	0.692835321719
1	4379	39.368893445958	0.323224503072
1	4463	40.061120217647	0.692226771689
1	4511	40.518536248651	0.457416031004
1	4552	40.775893027202	0.257356778551
1	4569	40.964624249245	0.188731222043
1	4577	41.086356596229	0.121732346984
1	4676	41.885819384897	0.799462788668
1	4708	42.236901094105	0.351081709208
1	4724	42.441041073946	0.204139979841
1	4756	42.744973934775	0.303932860829
1	4846	43.487329263878	0.742355329103
1	4894	44.361315203707	0.873985939829
1	4931	44.655128324074	0.293813120367
1	4955	45.097605231909	0.442476907835
1	4963	45.146287544015	0.048682312106
1	4971	45.340670708263	0.194383164248
1	5069	46.694054468803	1.35338376054
1	5170	47.99469286429	1.300638395487
1	5210	48.358848996673	0.364156132383
1	5218	48.368892282018	0.010043285345
1	5267	49.004235262726	0.635342980708
1	5275	49.019605840661	0.015370577935
1	5331	49.406860702072	0.387254861411
1	5387	50.052690465381	0.645829763309
1	5427	50.415000122596	0.362309657215
1	5443	50.489508459597	0.074508337001
1	5467	50.712020531753	0.222512072156
1	5483	50.784870242634	0.072849710881
1	5515	51.042063296747	0.257193054113
1	5595	51.575644377674	0.533581080927
1	5603	51.607849859492	0.032205481818
1	5611	51.630793777788	0.022943918296
1	5620	51.883626823851	0.252833046063
1	5689	52.883309599769	0.999682775918
1	5697	52.957151696848	0.073842097079
1	5713	53.029301239389	0.072149542541
1	5750	53.441840440402	0.412539201013
1	5758	53.711025828216	0.269185387814
1	5766	53.743126903282	0.032101075066
1	5864	54.492454007652	0.74932710437
1	5936	55.566681614801	1.074227607149
1	6056	56.929410086157	1.362728471356
1	6064	56.958522209576	0.029112123419
1	6093	57.485818019275	0.527295809699
1	6101	57.525636613665	0.03981859439
1	6117	57.606996715031	0.081360101366
1	6173	58.226553524401	0.61955680937
1	6189	58.395478514665	0.168924990264
1	6237	58.615645865401	0.220167350736
1	6285	59.177146950997	0.561501085596
1	6293	59.186673354166	0.009526403169
1	6301	59.224702567443	0.038029213277
1	6309	59.246202418818	0.021499851375
1	6325	59.410135872585	0.163933453767
1	6357	59.53172085208	0.121584979495
1	6389	59.859490697723	0.327769845643
1	6446	60.469638733191	0.610148035468
1	6454	60.494851915053	0.025213181862
1	6470	60.689848790798	0.194996875745
1	6494	60.983993265819	0.294144475021
1	6518	61.08857923905	0.104585973231
1	6526	61.180162056742	0.091582817692
1	6550	61.747572851364	0.567410794622
1	6558	61.830441210967	0.082868359603
1	6590	62.058038673772	0.227597462805
1	6598	62.118513572949	0.060474899177
1	6630	62.202495932684	0.083982359735
1	6646	62.632570179235	0.430074246551
1	6654	62.667409437032	0.034839257797
1	6721	63.3798747054	0.712465268368
1	6738	63.39947001015	0.01959530475
1	6762	63.469011707192	0.069541697042
1	6778	63.680704709891	0.211693002699
1	6818	63.876505238962	0.195800529071
1	6826	63.877750820483	0.001245581521
1	6932	64.552805753886	0.675054933403
1	6948	64.699546010882	0.146740256996
1	6972	64.973490513486	0.273944502604
1	6980	64.991299927354	0.017809413868
1	7004	65.087235174121	0.095935246767
1	7012	65.138863816589	0.051628642468
1	7068	66.096506765371	0.957642948782
1	7108	66.380361476603	0.283854711232
1	7195	67.520517001351	1.140155524748
1	7235	67.746161615389	0.225644614038
1	7243	67.813800620361	0.067639004972
1	7291	68.297354954588	0.483554334227
1	7331	68.712239620259	0.414884665671
1	7341	68.749205811143	0.036966190884
1	7390	69.05555199681	0.306346185667
1	7446	69.201355717201	0.145803720391
1	7486	69.677267138502	0.475911421301
1	7510	69.941856949309	0.264589810807
1	7542	70.183399679655	0.241542730346
1	7558	70.470596045495	0.28719636584
1	7631	70.98135963956	0.510763594065
1	7639	71.058983172997	0.077623533437
1	7663	71.412407916075	0.353424743078
1	7743	72.370761698818	0.958353782743
1	7751	72.407069941787	0.036308242969
1	7783	72.878247252569	0.471177310782
1	7824	73.636795740193	0.758548487624
1	7832	73.648852732522	0.012056992329
1	7856	73.720507617989	0.071654885467
1	7880	73.926641614214	0.206133996225
1	7905	73.987851505339	0.061209891125
1	7913	74.106847334163	0.118995828824
1	7921	74.117559493728	0.010712159565
1	7937	74.181069005819	0.063509512091
1	7961	74.241509011887	0.060440006068
1	7978	74.519691465437	0.27818245355
1	8058	75.063131374505	0.543439909068
1	8090	75.5864015155	0.523270140995
1	8152	76.169567764696	0.583166249196
1	8200	76.642066389833	0.472498625137
1	8249	76.945564011585	0.303497621752
1	8257	77.023031182351	0.077467170766
1	8273	77.287797028208	0.264765845857
1	8289	77.501017540586	0.213220512378
1	8345	77.945511958999	0.444494418413
1	8362	78.046057485056	0.100545526057
1	8387	78.205498119419	0.159440634363
1	8395	78.219551374788	0.014053255369
1	8419	78.347170180028	0.12761880524
1	8467	78.721925668682	0.374755488654
1	8475	78.83502820307	0.113102534388
1	8483	78.899678814573	0.064650611503
1	8491	78.913479720956	0.013800906383
1	8507	78.997566228591	0.084086507635
1	8531	79.301846537752	0.304280309161
1	8595	80.043663381371	0.741816843619
1	8612	80.362871972654	0.319208591283
1	8628	80.414931163276	0.052059190622
1	8652	80.787220496537	0.372289333261
1	8668	80.803804254199	0.016583757662
1	8676	80.871996609399	0.0681923552
1	8716	81.086087583177	0.214090973778
1	8797	82.199646482338	1.113558899161
1	8821	82.801082998408	0.60143651607
1	8845	83.16934889461	0.368265896202
1	8870	83.477777735661	0.308428841051
1	8878	83.554100727593	0.076322991932
1	8897	83.736422806245	0.182322078652
1	8961	84.13915464909	0.402731842845
1	9002	84.252144025945	0.112989376855
1	9074	85.236481748266	0.984337722321
1	9090	85.256195702865	0.019713954599
1	9106	85.3578910361	0.101695333235
1	9202	85.95633974247	0.59844870637
1	9210	86.226658942413	0.270319199943
1	9235	86.541515943631	0.314857001218
1	9243	86.618788635344	0.077272691713
1	9267	86.743302337543	0.124513702199
1	9302	87.096781027015	0.353478689472
1	9310	87.142666932836	0.045885905821
1	9352	87.672324375797	0.529657442961
1	9376	87.827585608648	0.155261232851
1	9424	88.217083224936	0.389497616288
1	9440	88.375229494908	0.158146269972
1	9464	88.532620837507	0.157391342599
1	9514	88.99270418956	0.460083352053
1	9602	89.98915882422	0.99645463466
1	9610	90.10955915614	0.12040033192
1	9618	90.111903454483	0.002344298343
1	9667	90.439772998328	0.327869543845
1	9756	91.370997711857	0.931224713529
1	9772	91.463787927952	0.092790216095
1	9780	91.554242909594	0.090454981642
1	9812	91.864625318472	0.310382408878
1	9828	91.995693504735	0.131068186263
1	9852	92.048963243191	0.053269738456
1	9860	92.108513270247	0.059550027056
1	9940	93.144325196985	1.035811926738
1	9956	93.233265635992	0.088940439007
1	9972	93.311734269407	0.078468633415
1	9980	93.366083962773	0.054349693366
1	10028	94.061819672818	0.695735710045
1	10080	94.747497766609	0.685678093791
1	10271	96.433064956486	1.685567189877
1	10279	96.500556700518	0.067491744032
1	10490	98.55261408242	2.052057381902
1	10546	98.77407625522	0.2214621728
1	10634	99.244573573831	0.470497318611
1	10682	99.840361013002	0.595787439171
1	10706	99.950061053428	0.109700040426
1	10760	100.648848801066	0.698787747638
1	10776	100.726457514937	0.077608713871
1	10800	101.200749463604	0.474291948667
1	10809	101.425549247302	0.224799783698
1	10913	102.311233087428	0.885683840126
1	10973	103.125753597073	0.814520509645