version 2
run General-0-20110408-12:06:48-5633
attr configname General
attr datetime 20110408-12:06:48
attr experiment General
attr inifile /home/surkesd/omnet_worksp/SwicthNet/src/omnetpp.ini
attr iterationvars ""
attr iterationvars2 $repetition=0
attr measurement ""
attr network LanNet
attr processid 5633
attr repetition 0
attr replication #0
attr resultdir results
attr runnumber 0
attr seedset 0

vector 5  LanNet.host[2].app  "Bettwen arrivals Time"  ETV
vector 4  LanNet.host[2].app  "Arrival Time"  ETV
vector 1  LanNet.host[0].app  "Bettwen arrivals Time"  ETV
vector 0  LanNet.host[0].app  "Arrival Time"  ETV
vector 7  LanNet.host[3].app  "Bettwen arrivals Time"  ETV
vector 6  LanNet.host[3].app  "Arrival Time"  ETV
vector 3  LanNet.host[1].app  "Bettwen arrivals Time"  ETV
vector 2  LanNet.host[1].app  "Arrival Time"  ETV
0	32	0.090010888846	0.090010888846
0	48	0.125784437802	0.035773548956
0	72	0.13849306122	0.012708623418
0	96	0.186155043205	0.047661981985
0	104	0.196589055538	0.010434012333
0	176	0.395173732863	0.198584677325
0	208	0.442217731436	0.047043998573
0	216	0.456050679181	0.013832947745
0	272	0.605648049135	0.149597369954
0	280	0.639556349665	0.03390830053
0	312	0.728708228084	0.089151878419
0	320	0.730050309563	0.001342081479
0	440	1.047617273125	0.317566963562
0	448	1.049647867002	0.002030593877
0	464	1.081612855138	0.031964988136
0	472	1.096875134271	0.015262279133
0	520	1.296654363406	0.199779229135
0	541	1.409114132909	0.112459769503
0	552	1.419337440491	0.010223307582
0	600	1.548578116993	0.129240676502
0	616	1.611326505945	0.062748388952
0	632	1.654404727529	0.043078221584
0	728	1.878165376874	0.223760649345
0	760	1.890520506006	0.012355129132
0	792	2.10132315534	0.210802649334
0	859	2.286504346652	0.185181191312
0	880	2.376124118047	0.089619771395
0	888	2.380070656191	0.003946538144
0	904	2.406688520228	0.026617864037
0	920	2.432542394047	0.025853873819
0	944	2.612741304316	0.180198910269
0	952	2.677602027529	0.064860723213
0	960	2.737839997006	0.060237969477
0	976	2.801939061323	0.064099064317
0	1024	2.928456726457	0.126517665134
0	1056	2.973925763073	0.045469036616
0	1064	2.974267028592	0.000341265519
0	1152	3.424420694469	0.450153665877
0	1192	3.524911567259	0.10049087279
0	1200	3.538261002413	0.013349435154
0	1216	3.5492712967	0.011010294287
0	1248	3.58562159859	0.03635030189
0	1256	3.633238160849	0.047616562259
0	1304	3.748873343791	0.115635182942
0	1376	3.864179400562	0.115306056771
0	1400	4.042493880567	0.178314480005
0	1520	4.527692236699	0.485198356132
0	1536	4.534143377977	0.006451141278
0	1552	4.56298414099	0.028840763013
0	1568	4.581470210059	0.018486069069
0	1584	4.641495635127	0.060025425068
0	1720	5.082594080027	0.4410984449
0	1728	5.089215852012	0.006621771985
0	1784	5.16655011254	0.077334260528
0	1800	5.214193218637	0.047643106097
0	1808	5.233037303062	0.018844084425
0	1816	5.257888780887	0.024851477825
0	1848	5.379258163061	0.121369382174
0	1856	5.48700139985	0.107743236789
0	1904	5.639812672517	0.152811272667
0	1920	5.723327139819	0.083514467302
0	2064	6.122032277818	0.398705137999
0	2072	6.145563736468	0.02353145865
0	2096	6.231862210676	0.086298474208
0	2112	6.314192689317	0.082330478641
0	2128	6.326620811483	0.012428122166
0	2144	6.394978733815	0.068357922332
0	2184	6.544211430086	0.149232696271
0	2192	6.55711820269	0.012906772604
0	2296	6.861775676724	0.304657474034
0	2304	6.902232255625	0.040456578901
0	2320	6.966542498273	0.064310242648
0	2392	7.226508518807	0.259966020534
0	2408	7.257504007133	0.030995488326
0	2448	7.56812598119	0.310621974057
0	2456	7.586861068404	0.018735087214
0	2480	7.677531079134	0.09067001073
0	2560	7.958348819536	0.280817740402
0	2576	7.980509595048	0.022160775512
0	2600	8.060281166342	0.079771571294
0	2720	8.431238485107	0.370957318765
0	2784	8.598097925375	0.166859440268
0	2816	8.642613866302	0.044515940927
0	2832	8.678188141661	0.035574275359
0	2848	8.729137248194	0.050949106533
0	2920	8.979281639694	0.2501443915
0	3008	9.33788473376	0.358603094066
0	3032	9.365566586653	0.027681852893
0	3048	9.404071254162	0.038504667509
0	3088	9.510199201791	0.106127947629
0	3112	9.602690167484	0.092490965693
0	3120	9.606154208791	0.003464041307
0	3168	9.80159290996	0.195438701169
0	3184	9.862575213087	0.060982303127
0	3224	9.957744102126	0.095168889039
0	3232	10.040332771617	0.082588669491
0	3258	10.106375592958	0.066042821341
0	3335	10.324363204742	0.217987611784
0	3432	10.628419207127	0.304056002385
0	3448	10.637474429668	0.009055222541
0	3472	10.727200168445	0.089725738777
0	3496	10.812845534593	0.085645366148
0	3528	10.929672868282	0.116827333689
0	3544	11.05093875292	0.121265884638
0	3552	11.056212225957	0.005273473037
0	3568	11.11507236339	0.058860137433
0	3616	11.250255093079	0.135182729689
0	3632	11.31128245085	0.061027357771
0	3664	11.428147751147	0.116865300297
0	3688	11.548893987237	0.12074623609
0	3696	11.617301325393	0.068407338156
0	3752	11.791584660767	0.174283335374
0	3768	11.825842553353	0.034257892586
0	3776	11.840464968608	0.014622415255
0	3824	11.911086515823	0.070621547215
0	3848	12.003896857162	0.092810341339
0	3928	12.21383463908	0.209937781918
0	3936	12.228232074559	0.014397435479
0	4000	12.343785869277	0.115553794718
0	4008	12.348187827731	0.004401958454
0	4040	12.388175371485	0.039987543754
0	4048	12.404084863714	0.015909492229
0	4064	12.441273988556	0.037189124842
0	4080	12.467288459504	0.026014470948
0	4112	12.625541276579	0.158252817075
0	4200	13.025844601806	0.400303325227
0	4208	13.02766773512	0.001823133314
0	4320	13.351188847691	0.323521112571
0	4336	13.383454132373	0.032265284682
0	4352	13.43661246955	0.053158337177
0	4368	13.49717723337	0.06056476382
0	4392	13.519391209037	0.022213975667
0	4456	13.71447593953	0.195084730493
0	4504	13.8812761408	0.16680020127
0	4536	13.993916321957	0.112640181157
0	4544	14.071323549181	0.077407227224
0	4560	14.116592379714	0.045268830533
0	4576	14.148945779255	0.032353399541
0	4648	14.456043064836	0.307097285581
0	4712	14.774809182495	0.318766117659
0	4728	14.792393979533	0.017584797038
0	4800	15.167713604573	0.37531962504
0	4816	15.230594424102	0.062880819529
0	4824	15.286087105084	0.055492680982
0	4872	15.534501159746	0.248414054662
0	4880	15.552574153321	0.018072993575
0	4904	15.664830087305	0.112255933984
0	4920	15.704938195604	0.040108108299
0	4928	15.736069983483	0.031131787879
0	4968	15.985758944999	0.249688961516
0	5000	16.0653806831	0.079621738101
0	5040	16.130918696257	0.065538013157
0	5048	16.195727210452	0.064808514195
0	5056	16.251062277386	0.055335066934
0	5104	16.359885078457	0.108822801071
0	5112	16.414626662047	0.05474158359
0	5152	16.53236159165	0.117734929603
0	5216	16.744035896171	0.211674304521
0	5232	16.803628003197	0.059592107026
0	5248	16.812351735855	0.008723732658
0	5264	16.834290558075	0.02193882222
0	5336	17.036156494245	0.20186593617
0	5368	17.070105302369	0.033948808124
0	5376	17.070376674795	0.000271372426
0	5384	17.101404442604	0.031027767809
0	5456	17.385727952637	0.284323510033
0	5464	17.402269276143	0.016541323506
0	5480	17.474122518639	0.071853242496
0	5520	17.723167408586	0.249044889947
0	5536	17.807474934622	0.084307526036
0	5568	17.953220567146	0.145745632524
0	5576	17.975873862913	0.022653295767
0	5624	18.129815389225	0.153941526312
0	5648	18.29485634675	0.165040957525
0	5664	18.348696451296	0.053840104546
0	5672	18.455942124975	0.107245673679
0	5736	18.599400474935	0.14345834996
0	5752	18.65594101396	0.056540539025
0	5768	18.787726091919	0.131785077959
0	5776	18.803761443033	0.016035351114
0	5904	19.365856985906	0.562095542873
0	5912	19.373800145622	0.007943159716
0	5960	19.466212681606	0.092412535984
0	5984	19.50482781143	0.038615129824
0	6008	19.5660079678	0.06118015637
0	6080	19.797641767924	0.231633800124
0	6112	19.836960644604	0.03931887668
0	6144	19.889876331532	0.052915686928
0	6160	20.024936534272	0.13506020274
0	6176	20.031376584015	0.006440049743
0	6184	20.063333556979	0.031956972964
0	6192	20.064990024671	0.001656467692
0	6224	20.17682283915	0.111832814479
0	6257	20.325896581364	0.149073742214
0	6273	20.334175044269	0.008278462905
0	6406	20.712965079437	0.378790035168
0	6423	20.733852751597	0.02088767216
0	6488	20.943720536909	0.209867785312
0	6504	21.00133363015	0.057613093241
0	6512	21.055083682014	0.053750051864
0	6584	21.221150050695	0.166066368681
0	6616	21.278195019392	0.057044968697
0	6664	21.312310161332	0.03411514194
0	6696	21.472619848159	0.160309686827
0	6704	21.476299995204	0.003680147045
0	6760	21.606399308739	0.130099313535
0	6768	21.638316376401	0.031917067662
0	6792	21.669767130997	0.031450754596
0	6840	21.782141517973	0.112374386976
0	6960	22.480161237433	0.69801971946
0	7016	22.571555919772	0.091394682339
0	7056	22.704870289811	0.133314370039
0	7064	22.743663467817	0.038793178006
0	7072	22.755797570392	0.012134102575
0	7088	22.775769992635	0.019972422243
0	7144	22.945017593891	0.169247601256
0	7208	23.049773757862	0.104756163971
0	7216	23.050156595294	0.000382837432
0	7240	23.069888764697	0.019732169403
0	7248	23.141220582314	0.071331817617
0	7256	23.190125490922	0.048904908608
0	7264	23.21305635449	0.022930863568
0	7280	23.244580707817	0.031524353327
0	7288	23.309032363023	0.064451655206
0	7320	23.351811504532	0.042779141509
0	7360	23.545874477788	0.194062973256
0	7400	23.624372918598	0.07849844081
0	7456	23.830434617361	0.206061698763
0	7512	24.091664842062	0.261230224701
0	7544	24.153435538504	0.061770696442
0	7584	24.365504845341	0.212069306837
0	7624	24.567482797331	0.20197795199
0	7720	24.737183078191	0.16970028086
0	7736	24.828042401784	0.090859323593
0	7752	24.843725888673	0.015683486889
0	7760	24.857262464796	0.013536576123
0	7776	24.892938997747	0.035676532951
0	7784	24.907649193885	0.014710196138
0	7832	25.031993527456	0.124344333571
0	7864	25.264344013406	0.23235048595
0	7872	25.279900194184	0.015556180778
0	7888	25.369014222556	0.089114028372
0	7904	25.377081944901	0.008067722345
0	7984	25.593010362404	0.215928417503
0	8016	25.756336323404	0.163325961
0	8080	25.90461056566	0.148274242256
0	8185	26.188541428028	0.283930862368
0	8204	26.240624295731	0.052082867703
0	8241	26.317415683603	0.076791387872
0	8425	26.964377931947	0.646962248344
0	8465	27.036267103479	0.071889171532
0	8497	27.291807622503	0.255540519024
0	8521	27.350923365777	0.059115743274
0	8529	27.398543766702	0.047620400925
0	8593	27.755294201869	0.356750435167
0	8601	27.806642221589	0.05134801972
0	8641	27.913667595129	0.10702537354
0	8649	27.926472442407	0.012804847278
0	8665	27.97465272373	0.048180281323
0	8681	27.999511350611	0.024858626881
0	8689	28.041760944152	0.042249593541
0	8705	28.056496548218	0.014735604066
0	8729	28.083778317239	0.027281769021
0	8753	28.198272983299	0.11449466606
0	8857	28.503935899671	0.305662916372
0	8906	28.613443642547	0.109507742876
0	8914	28.624232096592	0.010788454045
0	8938	28.795974320771	0.171742224179
0	9034	29.168506918813	0.372532598042
0	9050	29.203643032812	0.035136113999
0	9066	29.235224565604	0.031581532792
0	9090	29.337604073319	0.102379507715
0	9114	29.356094641576	0.018490568257
0	9122	29.387121476777	0.031026835201
0	9178	29.51797827327	0.130856796493
0	9186	29.521176185579	0.003197912309
0	9194	29.550318466877	0.029142281298
0	9210	29.614556045792	0.064237578915
0	9258	29.923633275966	0.309077230174
0	9266	29.932859186664	0.009225910698
0	9290	29.980889025611	0.048029838947
0	9410	30.28128676643	0.300397740819
0	9418	30.325202131861	0.043915365431
0	9458	30.479696752738	0.154494620877
0	9498	30.569693498815	0.089996746077
0	9514	30.632026459006	0.062332960191
0	9563	30.742288881003	0.110262421997
0	9587	30.872027629671	0.129738748668
0	9621	30.98732661386	0.115298984189
0	9629	31.00686244185	0.01953582799
0	9653	31.060454839512	0.053592397662
0	9726	31.227703804057	0.167248964545
0	9743	31.327990905896	0.100287101839
0	9847	31.683069942245	0.355079036349
0	9855	31.775021266584	0.091951324339
0	9871	31.814150098998	0.039128832414
0	9879	31.815842217666	0.001692118668
0	9911	31.937081808767	0.121239591101
0	9951	31.995551683879	0.058469875112
0	9959	32.047397848098	0.051846164219
0	9967	32.064600510153	0.017202662055
0	10007	32.210819976964	0.146219466811
0	10031	32.251982902424	0.04116292546
0	10055	32.300425169386	0.048442266962
0	10079	32.360672694251	0.060247524865
0	10095	32.369335752776	0.008663058525
0	10119	32.466111038233	0.096775285457
0	10159	32.620928344635	0.154817306402
0	10167	32.693478591951	0.072550247316
0	10183	32.727954780045	0.034476188094
0	10231	32.884445892703	0.156491112658
0	10247	32.891932871296	0.007486978593
0	10263	32.92657297717	0.034640105874
0	10303	33.015879323674	0.089306346504
0	10319	33.040753189885	0.024873866211
0	10343	33.101219332459	0.060466142574
0	10375	33.195122222653	0.093902890194
0	10503	33.823119742006	0.627997519353
0	10519	33.826903034946	0.00378329294
0	10567	34.01908061263	0.192177577684
0	10575	34.085924394428	0.066843781798
0	10599	34.131614722049	0.045690327621
0	10607	34.19114390308	0.059529181031
0	10615	34.235217620085	0.044073717005
0	10712	34.786126269506	0.550908649421
0	10728	34.856954803378	0.070828533872
0	10744	34.873580217775	0.016625414397
0	10784	35.078905086368	0.205324868593
0	10840	35.261027704876	0.182122618508
0	10864	35.322510068261	0.061482363385
0	10880	35.404127659939	0.081617591678
0	10896	35.426640466604	0.022512806665
0	10920	35.507069289587	0.080428822983
0	10952	35.603373057814	0.096303768227
0	11008	35.780910343032	0.177537285218
0	11024	35.825906972551	0.044996629519
0	11088	36.023810075765	0.197903103214
0	11112	36.09218926117	0.068379185405
0	11144	36.205781138254	0.113591877084
0	11200	36.445404527741	0.239623389487
0	11232	36.508729605222	0.063325077481
0	11248	36.524233001821	0.015503396599
0	11280	36.650349891697	0.126116889876
0	11288	36.692989431476	0.042639539779
0	11296	36.694464851521	0.001475420045
0	11304	36.751950976629	0.057486125108
0	11336	36.791719562706	0.039768586077
0	11360	36.897431172321	0.105711609615
0	11384	36.919004421296	0.021573248975
0	11400	36.954559483086	0.03555506179
0	11424	37.01655555503	0.061996071944
0	11464	37.144017902581	0.127462347551
0	11480	37.180530322014	0.036512419433
0	11544	37.411178618374	0.23064829636
0	11608	37.734304067229	0.323125448855
0	11640	37.835450361189	0.10114629396
0	11672	37.894679233155	0.059228871966
0	11688	37.942186407638	0.047507174483
0	11784	38.199083367689	0.256896960051
0	11808	38.27320517024	0.074121802551
0	11816	38.289834036388	0.016628866148
0	11832	38.397441588113	0.107607551725
0	11840	38.40770399978	0.010262411667
0	11848	38.423908075546	0.016204075766
0	11880	38.522821116293	0.098913040747
0	11888	38.536040910253	0.01321979396
0	11912	38.619840414541	0.083799504288
0	11928	38.692959125212	0.073118710671
0	12000	38.87928772762	0.186328602408
0	12024	38.983610879983	0.104323152363
0	12040	38.99776816856	0.014157288577
0	12064	39.07652146123	0.07875329267
0	12080	39.101050284475	0.024528823245
0	12104	39.15554629631	0.054496011835
0	12136	39.240445737938	0.084899441628
0	12184	39.364317722166	0.123871984228
0	12256	39.589811800783	0.225494078617
0	12320	39.848928189385	0.259116388602
0	12336	39.873951662542	0.025023473157
0	12344	39.936386629263	0.062434966721
0	12368	40.153500324404	0.217113695141
0	12424	40.30891232183	0.155411997426
0	12448	40.381240121206	0.072327799376
0	12464	40.425719568501	0.044479447295
0	12472	40.443979944351	0.01826037585
0	12488	40.549562200827	0.105582256476
0	12568	40.733227411711	0.183665210884
0	12608	40.838170884789	0.104943473078
0	12616	40.871781620909	0.03361073612
0	12648	40.967059782135	0.095278161226
0	12673	41.012274087787	0.045214305652
0	12681	41.044872670285	0.032598582498
0	12689	41.045420584126	0.000547913841
0	12746	41.187210245541	0.141789661415
0	12762	41.293410055634	0.106199810093
0	12818	41.455767435643	0.162357380009
0	12866	41.579028706028	0.123261270385
0	12883	41.645083239215	0.066054533187
0	12899	41.679644524529	0.034561285314
0	13003	41.951848043157	0.272203518628
0	13051	42.043573347239	0.091725304082
0	13075	42.225260149586	0.181686802347
0	13100	42.304431601874	0.079171452288
0	13116	42.389405352143	0.084973750269
0	13132	42.630897901247	0.241492549104
0	13140	42.632886539198	0.001988637951
0	13244	42.93534954821	0.302463009012
0	13300	43.001311760931	0.065962212721
0	13308	43.033458263601	0.03214650267
0	13364	43.190113391823	0.156655128222
0	13412	43.300130570636	0.110017178813
0	13428	43.31860264369	0.018472073054
0	13468	43.420794304816	0.102191661126
0	13516	43.597742002156	0.17694769734
0	13532	43.649683565543	0.051941563387
0	13548	43.653995816235	0.004312250692
0	13556	43.693722757815	0.03972694158
0	13644	43.987467182174	0.293744424359
0	13812	44.399374243123	0.411907060949
0	13852	44.627942250728	0.228568007605
0	13892	44.75934977661	0.131407525882
0	13908	44.79084433195	0.03149455534
0	13924	44.8312808327	0.04043650075
0	13940	44.846727004656	0.015446171956
0	13948	44.886175598257	0.039448593601
0	13964	44.912116636627	0.02594103837
0	14084	45.350284703634	0.438168067007
0	14116	45.411625046444	0.06134034281
0	14124	45.414026460812	0.002401414368
0	14148	45.504683363069	0.090656902257
0	14156	45.537172759801	0.032489396732
0	14164	45.543549010983	0.006376251182
0	14172	45.597275466734	0.053726455751
0	14180	45.764802283451	0.167526816717
0	14196	45.803586760689	0.038784477238
0	14236	46.105309109534	0.301722348845
0	14300	46.220383456006	0.115074346472
0	14324	46.270500357817	0.050116901811
0	14340	46.274528290449	0.004027932632
0	14356	46.367741201884	0.093212911435
0	14380	46.457403807767	0.089662605883
0	14404	46.555474682422	0.098070874655
0	14460	46.766382344947	0.210907662525
0	14492	46.813172948577	0.04679060363
0	14508	46.833368252122	0.020195303545
0	14596	47.070517878473	0.237149626351
0	14612	47.087728287034	0.017210408561
0	14652	47.220405473759	0.132677186725
0	14660	47.231414259593	0.011008785834
0	14692	47.357847793988	0.126433534395
0	14716	47.45305773634	0.095209942352
0	14820	47.654216747482	0.201159011142
0	14844	47.684087552846	0.029870805364
0	14868	47.739040287381	0.054952734535
0	14892	47.820561120268	0.081520832887
0	14900	47.832996613901	0.012435493633
0	14932	47.91401196077	0.081015346869
0	14940	47.914701064878	0.000689104108
0	14948	47.919108786697	0.004407721819
0	14964	48.004908480356	0.085799693659
0	15044	48.134769077883	0.129860597527
0	15124	48.243533223722	0.108764145839
0	15156	48.292235892109	0.048702668387
0	15268	48.723380268535	0.431144376426
0	15284	48.737959381299	0.014579112764
0	15324	48.844567062921	0.106607681622
0	15332	48.882369889223	0.037802826302
0	15372	49.073434362777	0.191064473554
0	15380	49.099226095061	0.025791732284
0	15396	49.128862360757	0.029636265696
0	15436	49.217220836953	0.088358476196
0	15476	49.281945139412	0.064724302459
0	15508	49.38539695744	0.103451818028
0	15592	49.801272543945	0.415875586505
0	15616	49.829486241313	0.028213697368
0	15712	50.173843416334	0.344357175021
0	15728	50.242731416739	0.068888000405
0	15744	50.262519392687	0.019787975948
0	15752	50.485731396067	0.22321200338
0	15800	50.557434022601	0.071702626534
0	15832	50.613302941548	0.055868918947
0	15904	50.763305278131	0.150002336583
0	15985	51.024615091618	0.261309813487
0	16040	51.072292989539	0.047677897921
0	16050	51.115175218875	0.042882229336
0	16058	51.163760433722	0.048585214847
0	16075	51.336575890912	0.17281545719
0	16083	51.345472527236	0.008896636324
0	16099	51.37679345787	0.031320930634
0	16139	51.465262019671	0.088468561801
0	16163	51.501686536298	0.036424516627
0	16211	51.548356270079	0.046669733781
0	16259	51.605621368807	0.057265098728
0	16308	51.754311155546	0.148689786739
0	16316	51.756325649542	0.002014493996
0	16332	51.780377668153	0.024052018611
0	16348	51.804331953609	0.023954285456
0	16364	51.847951054715	0.043619101106
0	16377	51.89147037171	0.043519316995
0	16388	51.900542107891	0.009071736181
0	16428	52.033394201156	0.132852093265
0	16452	52.20655246109	0.173158259934
0	16460	52.209417644971	0.002865183881
0	16532	52.520791831466	0.311374186495
0	16548	52.618411393609	0.097619562143
0	16556	52.620999819585	0.002588425976
0	16572	52.703111390914	0.082111571329
0	16613	52.809866785706	0.106755394792
0	16621	52.820672680249	0.010805894543
0	16742	53.167387764182	0.346715083933
0	16750	53.179803438208	0.012415674026
0	16806	53.438366606543	0.258563168335
0	16918	53.712224264048	0.273857657505
0	16926	53.718465583063	0.006241319015
0	16966	53.778845094938	0.060379511875
0	16993	53.853436791861	0.074591696923
0	16998	53.853576192263	0.000139400402
0	17006	53.882796637367	0.029220445104
0	17078	54.206695416793	0.323898779426
0	17094	54.256106757441	0.049411340648
0	17102	54.285024326057	0.028917568616
0	17110	54.293822076586	0.008797750529
0	17190	54.490982787186	0.1971607106
0	17206	54.501074231754	0.010091444568
0	17222	54.538396068244	0.03732183649
0	17262	54.656965199668	0.118569131424
0	17310	54.759402245155	0.102437045487
0	17318	54.763103943015	0.00370169786
0	17366	54.899164034517	0.136060091502
0	17374	54.923757997985	0.024593963468
0	17382	54.930080138934	0.006322140949
0	17390	54.940456977044	0.01037683811
0	17430	55.089937671264	0.14948069422
0	17462	55.15075413188	0.060816460616
0	17470	55.151064361315	0.000310229435
0	17574	55.362952909495	0.21188854818
0	17590	55.438854309908	0.075901400413
0	17598	55.441541406039	0.002687096131
0	17606	55.51672530939	0.075183903351
0	17622	55.644396252486	0.127670943096
0	17630	55.663341362688	0.018945110202
0	17646	55.678322530807	0.014981168119
0	17662	55.69047513767	0.012152606863
0	17678	55.700801484884	0.010326347214
0	17750	55.920658136027	0.219856651143
0	17766	55.943775824974	0.023117688947
0	17774	55.945578224423	0.001802399449
0	17790	55.967447845866	0.021869621443
0	17854	56.220111770473	0.252663924607
0	17878	56.288432347389	0.068320576916
0	17886	56.297548949726	0.009116602337
0	17902	56.30277676962	0.005227819894
0	17926	56.380227760635	0.077450991015
0	17966	56.44268632969	0.062458569055
0	17998	56.669988396704	0.227302067014
0	18078	56.833457068639	0.163468671935
0	18094	56.90610900775	0.072651939111
0	18118	56.945580935098	0.039471927348
0	18126	56.95202659933	0.006445664232
0	18142	57.011039488161	0.059012888831
0	18182	57.093015529947	0.081976041786
0	18222	57.259982580666	0.166967050719
0	18238	57.306296539815	0.046313959149
0	18270	57.40857118063	0.102274640815
0	18286	57.472294358066	0.063723177436
0	18302	57.506442578619	0.034148220553
0	18334	57.560070944411	0.053628365792
0	18366	57.631074668064	0.071003723653
0	18390	57.693862102931	0.062787434867
0	18406	57.771192543731	0.0773304408
0	18534	58.606323712172	0.835131168441
0	18614	58.840268559806	0.233944847634
0	18654	59.03100308079	0.190734520984
0	18670	59.035866302186	0.004863221396
0	18686	59.051403773664	0.015537471478
0	18758	59.25360297531	0.202199201646
0	18814	59.353196634468	0.099593659158
0	18926	59.790225870601	0.437029236133
0	18958	59.912208562686	0.121982692085
0	18974	59.953948461468	0.041739898782
0	19078	60.383052433392	0.429103971924
0	19094	60.43234738986	0.049294956468
0	19150	60.723699597761	0.291352207901
0	19198	60.843795244812	0.120095647051
0	19222	60.868969060963	0.025173816151
0	19262	60.928180217414	0.059211156451
0	19320	61.10663850079	0.178458283376
0	19336	61.301788877119	0.195150376329
0	19400	61.489176797203	0.187387920084
0	19417	61.616073429688	0.126896632485
0	19505	61.856208737805	0.240135308117
0	19513	61.868716382669	0.012507644864
0	19554	61.96461659288	0.095900210211
0	19562	61.996917967571	0.032301374691
0	19578	62.07480339688	0.077885429309
0	19674	62.326626907877	0.251823510997
0	19682	62.363119505542	0.036492597665
0	19698	62.446426794104	0.083307288562
0	19706	62.468265247589	0.021838453485
0	19730	62.528656562622	0.060391315033
0	19835	62.957932444628	0.429275882006
0	19843	62.967824036347	0.009891591719
0	19891	63.023360122174	0.055536085827
0	19915	63.08235356732	0.058993445146
0	19939	63.150214859356	0.067861292036
0	20003	63.323744140475	0.173529281119
0	20027	63.351038495504	0.027294355029
0	20035	63.407008215243	0.055969719739
0	20051	63.454074969043	0.0470667538
0	20211	64.029218951205	0.575143982162
0	20251	64.120872251667	0.091653300462
0	20275	64.172911709899	0.052039458232
0	20283	64.218873865097	0.045962155198
0	20323	64.350954029338	0.132080164241
0	20515	64.910793548683	0.559839519345
0	20547	64.997636925184	0.086843376501
0	20563	65.056077270333	0.058440345149
0	20571	65.06129390534	0.005216635007
0	20595	65.120097631221	0.058803725881
0	20659	65.322605811778	0.202508180557
0	20707	65.41248090945	0.089875097672
0	20787	65.634562324666	0.222081415216
0	20827	65.732430000839	0.097867676173
0	20851	65.818111212865	0.085681212026
0	20899	65.973572183574	0.155460970709
0	20955	66.123316570049	0.149744386475
0	21003	66.196230953608	0.072914383559
0	21043	66.418194316762	0.221963363154
0	21051	66.457549584723	0.039355267961
0	21075	66.627729586283	0.17018000156
0	21179	66.79105101466	0.163321428377
0	21243	67.025591882953	0.234540868293
0	21259	67.042779251356	0.017187368403
0	21299	67.27640432929	0.233625077934
0	21363	67.498441894816	0.222037565526
0	21371	67.516221860041	0.017779965225
0	21427	67.674136747513	0.157914887472
0	21443	67.695056861974	0.020920114461
0	21523	67.854767933557	0.159711071583
0	21555	67.912457461007	0.05768952745
0	21563	67.935350247484	0.022892786477
0	21587	68.06902538572	0.133675138236
0	21635	68.094500579672	0.025475193952
0	21683	68.218009822224	0.123509242552
0	21715	68.283893168318	0.065883346094
0	21755	68.481273159132	0.197379990814
0	21779	68.58307542659	0.101802267458
0	21819	68.697742213316	0.114666786726
0	21907	69.056869713001	0.359127499685
0	21947	69.16013541333	0.103265700329
0	21955	69.17054402509	0.01040861176
0	21969	69.174966022725	0.004421997635
0	21988	69.217549186806	0.042583164081
0	21996	69.229700291456	0.01215110465
0	22052	69.376764357692	0.147064066236
0	22092	69.483577072613	0.106812714921
0	22116	69.524392170711	0.040815098098
0	22220	69.837062780264	0.312670609553
0	22236	69.96241050626	0.125347725996
0	22244	69.984524988623	0.022114482363
0	22324	70.180326516771	0.195801528148
0	22332	70.197077441654	0.016750924883
0	22340	70.223528402292	0.026450960638
0	22364	70.362822857055	0.139294454763
0	22388	70.420040806218	0.057217949163
0	22396	70.441075277596	0.021034471378
0	22420	70.509432064197	0.068356786601
0	22476	70.633889523535	0.124457459338
0	22484	70.646666251892	0.012776728357
0	22492	70.692161394574	0.045495142682
0	22556	70.928386552294	0.23622515772
0	22580	70.955352946072	0.026966393778
0	22604	70.980515498531	0.025162552459
0	22612	70.993313589844	0.012798091313
0	22716	71.523307288855	0.529993699011
0	22732	71.62788388931	0.104576600455
0	22781	71.759571065572	0.131687176262
0	22846	71.913684829385	0.154113763813
0	22854	71.929963102729	0.016278273344
0	22870	71.980758621303	0.050795518574
0	22934	72.167638558984	0.186879937681
0	22974	72.210406878094	0.04276831911
0	23041	72.313384630723	0.102977752629
0	23094	72.571793030444	0.258408399721
0	23105	72.577935522357	0.006142491913
0	23113	72.589514033859	0.011578511502
0	23137	72.690795534557	0.101281500698
0	23145	72.692125992224	0.001330457667
0	23185	72.769652717437	0.077526725213
0	23193	72.784475116958	0.014822399521
0	23209	72.857833394778	0.07335827782
0	23250	73.000274469697	0.142441074919
0	23298	73.153693127792	0.153418658095
0	23314	73.188782776781	0.035089648989
0	23330	73.36113794535	0.172355168569
0	23338	73.37953510197	0.01839715662
0	23346	73.383533760595	0.003998658625
0	23359	73.406384181943	0.022850421348
0	23370	73.444126518631	0.037742336688
0	23402	73.565155280889	0.121028762258
0	23410	73.606098476951	0.040943196062
0	23482	73.819769709814	0.213671232863
0	23546	74.080685525365	0.260915815551
0	23554	74.121009968412	0.040324443047
0	23602	74.364481104726	0.243471136314
0	23658	74.620211132595	0.255730027869
0	23690	74.729489184496	0.109278051901
0	23746	74.865536717121	0.136047532625
0	23754	74.891685353427	0.026148636306
0	23778	74.976632002026	0.084946648599
0	23786	75.012166289234	0.035534287208
0	23794	75.033055496453	0.020889207219
0	23810	75.10712942189	0.074073925437
0	23850	75.17770762346	0.07057820157
0	23938	75.361853039066	0.184145415606
0	23946	75.377678371133	0.015825332067
0	23986	75.466032484884	0.088354113751
0	24018	75.544251509323	0.078219024439
0	24042	75.564317549622	0.020066040299
0	24058	75.58321093009	0.018893380468
0	24074	75.599898732902	0.016687802812
0	24082	75.601775426431	0.001876693529
0	24122	75.756126774332	0.154351347901
0	24138	75.806918317315	0.050791542983
0	24162	75.923696913747	0.116778596432
0	24242	76.252153041391	0.328456127644
0	24250	76.259208646512	0.007055605121
0	24258	76.289690299046	0.030481652534
0	24266	76.295603747295	0.005913448249
0	24290	76.368242511167	0.072638763872
0	24298	76.376926302954	0.008683791787
0	24386	76.59859591889	0.221669615936
0	24435	76.844099498051	0.245503579161
0	24443	76.845518691225	0.001419193174
0	24467	76.896375651514	0.050856960289
0	24475	76.904279413867	0.007903762353
0	24483	76.906959178528	0.002679764661
0	24587	77.156495592656	0.249536414128
0	24603	77.293466181197	0.136970588541
0	24627	77.32691793139	0.033451750193
0	24643	77.348115182853	0.021197251463
0	24715	77.64491755528	0.296802372427
0	24755	77.876920585175	0.232003029895
0	24779	77.903930215534	0.027009630359
0	24803	78.028843465728	0.124913250194
0	24811	78.082020998749	0.053177533021
0	24819	78.109591883792	0.027570885043
0	24827	78.168809856937	0.059217973145
0	24843	78.174763989325	0.005954132388
0	24851	78.19836158012	0.023597590795
0	24891	78.3124215491	0.11405996898
0	24923	78.382915790507	0.070494241407
0	24995	78.56568968063	0.182773890123
0	25003	78.567028023969	0.001338343339
0	25035	78.636475624242	0.069447600273
0	25067	78.7832048848	0.146729260558
0	25091	78.830590765394	0.047385880594
0	25099	78.833491462845	0.002900697451
0	25115	78.848006006803	0.014514543958
0	25131	78.895289737722	0.047283730919
0	25171	78.947852395313	0.052562657591
0	25187	78.977546157362	0.029693762049
0	25195	79.005976139109	0.028429981747